<?xml version="1.0" encoding="UTF-8" ?>
<psml version="1.1" energy_unit="hartree" length_unit="bohr"
 uuid="ffafb340-1d64-11e8-5aab-8aabefd75e6e"
 xmlns="http://esl.cecam.org/PSML/ns/1.1">
<provenance creator="ONCVPSP-3.3.0+psml-3.3.0-73 (scalar-relativistic)"
 date="2018-03-01">
<annotation action="semilocal-pseudopotential-generation"
 action-cont="projectors-generation" />
<input-file name="oncvpsp-input">
<![CDATA[# atsym z nc nv iexc psfile
F 9 1 2 -116133 upf
# n l f
1 0 2.0
2 0 2.0
2 1 5.0
# lmax
2
# l rc ep ncon nbas qcut
0 1.3 0.0 4 8 8.6
1 1.45 0.0 4 8 9.0
2 1.6 0.15 4 8 5.8
# lloc lpopt rc5 dvloc0
4 5 0.95 0.0
# l nproj debl
0 2 1.5
1 2 1.5
2 1 2.0
# icmod fcfact rcfact
3 2.5 1.85
# epsh1 epsh2 depsh
-12.0 12.0 0.02
# rlmax drl
6.0 0.01
 0
]]>
</input-file>
</provenance>
<pseudo-atom-spec atomic-label="F" atomic-number="9" z-pseudo="7"
 flavor="Hamann&apos;s oncvpsp" relativity="scalar" spin-dft="no"
 core-corrections="yes">
<annotation pseudo-energy="-23.8220655712" />
<exchange-correlation>
<annotation oncvpsp-xc-code="-116133" oncvpsp-xc-type="libxc-interface" />
<libxc-info number-of-functionals="2">
<functional name="Perdew, Burke &amp; Ernzerhof SOL (GGA)" type="exchange"
 id="116" />
<functional name="Perdew, Burke &amp; Ernzerhof SOL (GGA)" type="correlation"
 id="133" />
</libxc-info>
</exchange-correlation>
<valence-configuration total-valence-charge="7">
<shell n="2" l="s" occupation="2" />
<shell n="2" l="p" occupation="5" />
</valence-configuration>
</pseudo-atom-spec>
<grid npts="457">
<annotation type="sampled from oncvpsp log grid"
 recipe="r(i:1..N) = r1*exp(a*(i-1)) + r=0; resampled"
 recipe-cont="r1: scale; a: step" scale="0.555555555556E-04"
 step="0.119285708653E-01" delta="0.500000000000E-02" rmax="44.1907361906" />
<grid-data>
  0.000000000000E+00  5.046162377637E-03  1.007931334073E-02  1.512057726285E-02
  2.013263740199E-02  2.525401356072E-02  3.056459245980E-02  3.569153875685E-02
  4.069592361693E-02  4.585176253312E-02  5.104822514639E-02  5.615969585203E-02
  6.178297931314E-02  6.716336310323E-02  7.301229875098E-02  7.842943695036E-02
  8.424849902796E-02  8.942619137815E-02  9.492209115497E-02  1.007557545544E-01
  1.069479396451E-01  1.121745852098E-01  1.176566618182E-01  1.234066526239E-01
  1.294376508434E-01  1.357633895713E-01  1.423982730511E-01  1.475863729991E-01
  1.529634947694E-01  1.585365251318E-01  1.643126017665E-01  1.702991224063E-01
  1.765037543106E-01  1.829344440862E-01  1.895994278638E-01  1.965072418476E-01
  2.036667332471E-01  2.110870716089E-01  2.161835578658E-01  2.214030936869E-01
  2.267486499809E-01  2.322232693860E-01  2.378300680021E-01  2.435722371639E-01
  2.494530452580E-01  2.554758395827E-01  2.616440482536E-01  2.679611821546E-01
  2.744308369366E-01  2.810566950636E-01  2.878425279092E-01  2.947921979030E-01
  3.019096607292E-01  3.091989675778E-01  3.166642674510E-01  3.243098095244E-01
  3.321399455655E-01  3.401591324113E-01  3.483719345042E-01  3.567830264909E-01
  3.653971958825E-01  3.742193457798E-01  3.832544976644E-01  3.925077942560E-01
  4.019845024405E-01  4.116900162674E-01  4.216298600202E-01  4.266894183404E-01
  4.318096913605E-01  4.369914076568E-01  4.422353045487E-01  4.475421282033E-01
  4.529126337417E-01  4.583475853466E-01  4.638477563708E-01  4.694139294472E-01
  4.750468966006E-01  4.807474593598E-01  4.865164288721E-01  4.923546260186E-01
  4.982628815308E-01  5.042420361092E-01  5.102929405425E-01  5.164164558290E-01
  5.226134532990E-01  5.288848147385E-01  5.352314325154E-01  5.416542097056E-01
  5.481540602221E-01  5.547319089447E-01  5.613886918521E-01  5.681253561543E-01
  5.749428604281E-01  5.818421747533E-01  5.888242808503E-01  5.958901722205E-01
  6.030408542872E-01  6.102773445386E-01  6.176006726731E-01  6.250118807451E-01
  6.325120233141E-01  6.401021675939E-01  6.477833936050E-01  6.555567943282E-01
  6.634234758602E-01  6.713845575705E-01  6.794411722613E-01  6.875944663285E-01
  6.958455999244E-01  7.041957471235E-01  7.126460960890E-01  7.211978492421E-01
  7.298522234330E-01  7.386104501142E-01  7.474737755155E-01  7.564434608217E-01
  7.655207823516E-01  7.747070317398E-01  7.840035161207E-01  7.934115583141E-01
  8.029324970139E-01  8.125676869781E-01  8.223184992218E-01  8.321863212125E-01
  8.421725570670E-01  8.522786277518E-01  8.625059712848E-01  8.728560429403E-01
  8.833303154555E-01  8.939302792410E-01  9.046574425919E-01  9.155133319030E-01
  9.264994918858E-01  9.376174857885E-01  9.488688956179E-01  9.602553223653E-01
  9.717783862337E-01  9.834397268685E-01  9.952410035910E-01  1.007183895634E+00
  1.019270102382E+00  1.031501343610E+00  1.043879359734E+00  1.056405912050E+00
  1.069082782995E+00  1.081911776391E+00  1.094894717708E+00  1.108033454320E+00
  1.121329855772E+00  1.134785814041E+00  1.148403243810E+00  1.162184082735E+00
  1.176130291728E+00  1.190243855229E+00  1.204526781492E+00  1.218981102870E+00
  1.233608876104E+00  1.248412182617E+00  1.263393128809E+00  1.278553846354E+00
  1.293896492511E+00  1.309423250421E+00  1.325136329426E+00  1.341037965379E+00
  1.357130420963E+00  1.373415986015E+00  1.389896977847E+00  1.406575741581E+00
  1.423454650480E+00  1.440536106286E+00  1.457822539562E+00  1.475316410036E+00
  1.493020206957E+00  1.510936449440E+00  1.529067686834E+00  1.547416499076E+00
  1.565985497064E+00  1.584777323029E+00  1.603794650906E+00  1.623040186716E+00
  1.642516668957E+00  1.662226868985E+00  1.682173591412E+00  1.702359674509E+00
  1.722787990603E+00  1.743461446491E+00  1.764382983849E+00  1.785555579655E+00
  1.806982246611E+00  1.828666033570E+00  1.850610025973E+00  1.872817346284E+00
  1.895291154440E+00  1.918034648293E+00  1.941051064073E+00  1.964343676841E+00
  1.987915800964E+00  2.011770790575E+00  2.035912040062E+00  2.060342984543E+00
  2.085067100357E+00  2.110087905562E+00  2.135408960428E+00  2.161033867953E+00
  2.186966274369E+00  2.213209869661E+00  2.239768388097E+00  2.266645608754E+00
  2.293845356059E+00  2.321371500332E+00  2.349227958336E+00  2.377418693836E+00
  2.405947718162E+00  2.434819090780E+00  2.464036919870E+00  2.493605362908E+00
  2.523528627263E+00  2.553810970790E+00  2.584456702440E+00  2.615470182869E+00
  2.646855825063E+00  2.678618094964E+00  2.710761512104E+00  2.743290650249E+00
  2.776210138052E+00  2.809524659708E+00  2.843238955625E+00  2.877357823092E+00
  2.911886116969E+00  2.946828750373E+00  2.982190695378E+00  3.017976983722E+00
  3.054192707527E+00  3.090843020017E+00  3.127933136257E+00  3.165468333892E+00
  3.203453953899E+00  3.241895401346E+00  3.280798146162E+00  3.320167723916E+00
  3.360009736603E+00  3.400329853442E+00  3.441133811684E+00  3.482427417424E+00
  3.524216546433E+00  3.566507144990E+00  3.609305230730E+00  3.652616893499E+00
  3.696448296221E+00  3.740805675775E+00  3.785695343885E+00  3.831123688011E+00
  3.877097172267E+00  3.923622338335E+00  3.970705806395E+00  4.018354276071E+00
  4.066574527384E+00  4.115373421713E+00  4.164757902773E+00  4.214734997607E+00
  4.265311817578E+00  4.316495559389E+00  4.368293506101E+00  4.420713028175E+00
  4.473761584513E+00  4.527446723527E+00  4.581776084209E+00  4.636757397220E+00
  4.692398485986E+00  4.748707267818E+00  4.805691755032E+00  4.863360056092E+00
  4.921720376766E+00  4.980781021287E+00  5.040550393542E+00  5.101036998265E+00
  5.162249442244E+00  5.224196435551E+00  5.286886792777E+00  5.350329434291E+00
  5.414533387502E+00  5.479507788152E+00  5.545261881610E+00  5.611805024189E+00
  5.679146684480E+00  5.747296444693E+00  5.816264002030E+00  5.886059170054E+00
  5.956691880095E+00  6.028172182656E+00  6.100510248848E+00  6.173716371834E+00
  6.247800968296E+00  6.322774579916E+00  6.398647874875E+00  6.475431649373E+00
  6.553136829165E+00  6.631774471115E+00  6.711355764769E+00  6.791892033946E+00
  6.873394738353E+00  6.955875475214E+00  7.039345980916E+00  7.123818132687E+00
  7.209303950279E+00  7.295815597683E+00  7.383365384855E+00  7.471965769473E+00
  7.561629358707E+00  7.652368911011E+00  7.744197337944E+00  7.837127705999E+00
  7.931173238471E+00  8.026347317333E+00  8.122663485141E+00  8.220135446962E+00
  8.318777072326E+00  8.418602397194E+00  8.519625625960E+00  8.621861133472E+00
  8.725323467073E+00  8.830027348678E+00  8.935987676862E+00  9.043219528985E+00
  9.151738163332E+00  9.261559021292E+00  9.372697729548E+00  9.485170102302E+00
  9.598992143530E+00  9.714180049252E+00  9.830750209843E+00  9.948719212362E+00
  1.006810384291E+01  1.018892108902E+01  1.031118814209E+01  1.043492239980E+01
  1.056014146860E+01  1.068686316622E+01  1.081510552421E+01  1.094488679050E+01
  1.107622543199E+01  1.120914013717E+01  1.134364981882E+01  1.147977361665E+01
  1.161753090005E+01  1.175694127085E+01  1.189802456610E+01  1.204080086089E+01
  1.218529047122E+01  1.233151395687E+01  1.247949212436E+01  1.262924602985E+01
  1.278079698221E+01  1.293416654599E+01  1.308937654455E+01  1.324644906308E+01
  1.340540645184E+01  1.356627132926E+01  1.372906658521E+01  1.389381538423E+01
  1.406054116884E+01  1.422926766287E+01  1.440001887482E+01  1.457281910132E+01
  1.474769293054E+01  1.492466524571E+01  1.510376122865E+01  1.528500636340E+01
  1.546842643976E+01  1.565404755704E+01  1.584189612772E+01  1.603199888125E+01
  1.622438286783E+01  1.641907546224E+01  1.661610436779E+01  1.681549762020E+01
  1.701728359164E+01  1.722149099474E+01  1.742814888668E+01  1.763728667332E+01
  1.784893411340E+01  1.806312132276E+01  1.827987877863E+01  1.849923732398E+01
  1.872122817187E+01  1.894588290993E+01  1.917323350485E+01  1.940331230691E+01
  1.963615205459E+01  1.987178587924E+01  2.011024730979E+01  2.035157027751E+01
  2.059578912084E+01  2.084293859029E+01  2.109305385338E+01  2.134617049962E+01
  2.160232454561E+01  2.186155244016E+01  2.212389106944E+01  2.238937776227E+01
  2.265805029542E+01  2.292994689897E+01  2.320510626175E+01  2.348356753690E+01
  2.376537034734E+01  2.405055479151E+01  2.433916144900E+01  2.463123138639E+01
  2.492680616303E+01  2.522592783699E+01  2.552863897103E+01  2.583498263868E+01
  2.614500243035E+01  2.645874245951E+01  2.677624736902E+01  2.709756233745E+01
  2.742273308550E+01  2.775180588253E+01  2.808482755312E+01  2.842184548376E+01
  2.876290762956E+01  2.910806252112E+01  2.945735927137E+01  2.981084758263E+01
  3.016857775362E+01  3.053060068666E+01  3.089696789490E+01  3.126773150964E+01
  3.164294428775E+01  3.202265961921E+01  3.240693153464E+01  3.279581471305E+01
  3.318936448961E+01  3.358763686349E+01  3.399068850585E+01  3.439857676792E+01
  3.481135968913E+01  3.522909600540E+01  3.565184515747E+01  3.607966729936E+01
  3.651262330695E+01  3.695077478663E+01  3.739418408407E+01  3.784291429308E+01
  3.829702926460E+01  3.875659361577E+01  3.922167273916E+01  3.969233281203E+01
  4.016864080578E+01  4.065066449545E+01  4.113847246939E+01  4.163213413902E+01
  4.213171974869E+01  4.263730038568E+01  4.314894799030E+01  4.366673536619E+01
  4.419073619058E+01
</grid-data>
</grid>
<valence-charge total-charge="7" is-unscreening-charge="yes"
 rescaled-to-z-pseudo="no">
<radfunc>
<data npts="457">
  6.748807144290E+00  6.752342750602E+00  6.762908284376E+00  6.780523395858E+00
  6.804989882795E+00  6.837117272982E+00  6.877991728435E+00  6.924698172023E+00
  6.977089231711E+00  7.038018003483E+00  7.106479076141E+00  7.180631971899E+00
  7.269889310486E+00  7.362688239538E+00  7.471605155737E+00  7.579781216973E+00
  7.703606762442E+00  7.820247434139E+00  7.950523138888E+00  8.095863202155E+00
  8.257801787964E+00  8.400398173165E+00  8.555539185420E+00  8.724133815360E+00
  8.907114687643E+00  9.105428037555E+00  9.320020632821E+00  9.492209318009E+00
  9.674459311977E+00  9.867133026446E+00  1.007056830796E+01  1.028507040290E+01
  1.051090273868E+01  1.074827641851E+01  1.099733833142E+01  1.125815778836E+01
  1.153071160923E+01  1.181486760775E+01  1.201062834639E+01  1.221132111722E+01
  1.241680190887E+01  1.262689204827E+01  1.284137518093E+01  1.305999414619E+01
  1.328244776517E+01  1.350838756313E+01  1.373741445361E+01  1.396907541647E+01
  1.420286020896E+01  1.443819815464E+01  1.467445506309E+01  1.491093034025E+01
  1.514685435789E+01  1.538138615888E+01  1.561361158347E+01  1.584254191079E+01
  1.606711311779E+01  1.628618586615E+01  1.649854633477E+01  1.670290802145E+01
  1.689791464184E+01  1.708214425608E+01  1.725411475287E+01  1.741229081748E+01
  1.755509250200E+01  1.768090550404E+01  1.778809324231E+01  1.783418850493E+01
  1.787501079346E+01  1.791035578657E+01  1.794002072434E+01  1.796380500600E+01
  1.798151081588E+01  1.799294377681E+01  1.799791362969E+01  1.799623493799E+01
  1.798772781540E+01  1.797221867482E+01  1.794954099644E+01  1.791953611231E+01
  1.788205400472E+01  1.783695411524E+01  1.778410616087E+01  1.772339095364E+01
  1.765470121961E+01  1.757794241276E+01  1.749303351921E+01  1.739990784677E+01
  1.729851379451E+01  1.718881559697E+01  1.707079403719E+01  1.694444712272E+01
  1.680979071855E+01  1.666685913074E+01  1.651570563455E+01  1.635640294075E+01
  1.618904359403E+01  1.601374029715E+01  1.583062615514E+01  1.563985483365E+01
  1.544160062613E+01  1.523605842476E+01  1.502344359061E+01  1.480399171905E+01
  1.457795829684E+01  1.434561824841E+01  1.410726536923E+01  1.386321164523E+01
  1.361378645811E+01  1.335933567723E+01  1.310022063996E+01  1.283681702323E+01
  1.256951361033E+01  1.229871095792E+01  1.202481996933E+01  1.174826038154E+01
  1.146945917399E+01  1.118884890866E+01  1.090686601159E+01  1.062394900712E+01
  1.034053671678E+01  1.005706643546E+01  9.773972098063E+00  9.491682450257E+00
  9.210619237244E+00  8.931195424470E+00  8.653813464210E+00  8.378863621708E+00
  8.106722374113E+00  7.837750894883E+00  7.572293635566E+00  7.310677015957E+00
  7.053208232572E+00  6.800174194211E+00  6.551840592065E+00  6.308451110487E+00
  6.070226783099E+00  5.837365497443E+00  5.610041649984E+00  5.388405951786E+00
  5.172585383887E+00  4.962683300067E+00  4.758779673587E+00  4.560931483440E+00
  4.369173234795E+00  4.183517607610E+00  4.003956226881E+00  3.830460547571E+00
  3.662982847105E+00  3.501457318140E+00  3.345801254359E+00  3.195916322017E+00
  3.051689909983E+00  2.912996550945E+00  2.779699406221E+00  2.651651806197E+00
  2.528698837705E+00  2.410678968626E+00  2.297425698605E+00  2.188769223031E+00
  2.084538095296E+00  1.984560869937E+00  1.888667884528E+00  1.796693688831E+00
  1.708479802795E+00  1.623875827232E+00  1.542740381465E+00  1.464941833938E+00
  1.390358804734E+00  1.318880418434E+00  1.250406289689E+00  1.184845556088E+00
  1.122113013122E+00  1.062123694542E+00  1.004793051429E+00  9.500370494271E-01
  8.977723062702E-01  8.479162203931E-01  8.003870907024E-01  7.551042276414E-01
  7.119880556918E-01  6.709602074831E-01  6.319436097001E-01  5.948625609983E-01
  5.596428021527E-01  5.262115786823E-01  4.944976962021E-01  4.644315687699E-01
  4.359452605008E-01  4.089725207310E-01  3.834488130196E-01  3.593113382801E-01
  3.364990523347E-01  3.149526781900E-01  2.946147133272E-01  2.754294323019E-01
  2.573428849462E-01  2.403028904576E-01  2.242590276600E-01  2.091626217115E-01
  1.949667275294E-01  1.816261101927E-01  1.690972225778E-01  1.573381804698E-01
  1.463087353854E-01  1.359702453330E-01  1.262856437241E-01  1.172194066432E-01
  1.087375186692E-01  1.008074374361E-01  9.339805710569E-02  8.647967092012E-02
  8.002393299019E-02  7.400381946696E-02  6.839358923613E-02  6.316874426615E-02
  5.830598973355E-02  5.378319404153E-02  4.957934884104E-02  4.567452915686E-02
  4.204985371510E-02  3.868744556236E-02  3.557039306109E-02  3.268271134010E-02
  3.000930427356E-02  2.753592705681E-02  2.524914944156E-02  2.313631968831E-02
  2.118552928836E-02  1.938557850275E-02  1.772594276042E-02  1.619673995277E-02
  1.478869865670E-02  1.349312731366E-02  1.230188438683E-02  1.120734951435E-02
  1.020239567142E-02  9.280362350119E-03  8.435029760996E-03  7.660594056745E-03
  6.951643574226E-03  6.303136087456E-03  5.710377060761E-03  5.168998888158E-03
  4.674941102103E-03  4.224431532142E-03  3.813968391662E-03  3.440303268888E-03
  3.100424996486E-03  2.791544372654E-03  2.511079705353E-03  2.256643150362E-03
  2.026027813180E-03  1.817195584264E-03  1.628265676945E-03  1.457503837259E-03
  1.303312195169E-03  1.164219726933E-03  1.038873298943E-03  9.260292639117E-04
  8.245455811168E-04  7.333744331806E-04  6.515553128331E-04  5.782085540542E-04
  5.125292830175E-04  4.537817652954E-04  4.012941268358E-04  3.544534272709E-04
  3.127010651544E-04  2.755284957393E-04  2.424732428962E-04  2.131151877262E-04
  1.870731173370E-04  1.640015181317E-04  1.435875987876E-04  1.255485289020E-04
  1.096288800296E-04  9.559825654642E-05  8.324910444975E-05  7.239468683661E-05
  6.286721540423E-05  5.451612788381E-05  4.720650185660E-05  4.081759591109E-05
  3.524150958435E-05  3.038195399133E-05  2.615312548448E-05  2.247867510499E-05
  1.929076698739E-05  1.652921926168E-05  1.414072136452E-05  1.207812202236E-05
  1.029978250647E-05  8.768990083708E-06  7.453426896671E-06  6.324689804595E-06
  5.357857001378E-06  4.531097499948E-06  3.825319833222E-06  3.223856571215E-06
  2.712181491598E-06  2.277656467457E-06  1.909305351207E-06  1.597612337848E-06
  1.334342484114E-06  1.112382242804E-06  9.255980439042E-07  7.687111162191E-07
  6.371868954304E-07  5.271375070297E-07  4.352359457514E-07  3.586406972648E-07
  2.949296633105E-07  2.420423585308E-07  1.982294463074E-07  1.620087723491E-07
  1.321271389488E-07  1.075271401227E-07  8.731844865021E-08  7.075301071593E-08
  5.720366280206E-08  4.614573905792E-08  3.714128594243E-08  2.982554485362E-08
  2.389540306461E-08  1.909954890919E-08  1.523009911650E-08  1.211549478625E-08
  9.614488007918E-09  7.611063831241E-09  6.010162444907E-09  4.734084255195E-09
  3.719476298748E-09  2.914812281481E-09  2.278290700527E-09  1.776086155483E-09
  1.380898251626E-09  1.070750590450E-09  8.279993675997E-10  6.385171787182E-10
  4.910228815657E-10  3.765328790247E-10  2.879130628357E-10  2.195139733678E-10
  1.668745588480E-10  1.264823226723E-10  9.557968678594E-11  7.200812295472E-11
  5.408305801094E-11  4.049376321360E-11  3.022357360792E-11  2.248613472835E-11
  1.667555901705E-11  1.232621300990E-11  9.081266812399E-12  6.668261660809E-12
  4.879903684642E-12  3.558963137851E-12  2.586608320885E-12  1.873327184800E-12
  1.351925143042E-12  9.721364350804E-13  6.964918318592E-13  4.971598562778E-13
  0.000000000000E+00  0.000000000000E+00  0.000000000000E+00  0.000000000000E+00
  0.000000000000E+00  0.000000000000E+00  0.000000000000E+00  0.000000000000E+00
  0.000000000000E+00  0.000000000000E+00  0.000000000000E+00  0.000000000000E+00
  0.000000000000E+00  0.000000000000E+00  0.000000000000E+00  0.000000000000E+00
  0.000000000000E+00  0.000000000000E+00  0.000000000000E+00  0.000000000000E+00
  0.000000000000E+00  0.000000000000E+00  0.000000000000E+00  0.000000000000E+00
  0.000000000000E+00  0.000000000000E+00  0.000000000000E+00  0.000000000000E+00
  0.000000000000E+00  0.000000000000E+00  0.000000000000E+00  0.000000000000E+00
  0.000000000000E+00  0.000000000000E+00  0.000000000000E+00  0.000000000000E+00
  0.000000000000E+00  0.000000000000E+00  0.000000000000E+00  0.000000000000E+00
  0.000000000000E+00  0.000000000000E+00  0.000000000000E+00  0.000000000000E+00
  0.000000000000E+00  0.000000000000E+00  0.000000000000E+00  0.000000000000E+00
  0.000000000000E+00  0.000000000000E+00  0.000000000000E+00  0.000000000000E+00
  0.000000000000E+00  0.000000000000E+00  0.000000000000E+00  0.000000000000E+00
  0.000000000000E+00  0.000000000000E+00  0.000000000000E+00  0.000000000000E+00
  0.000000000000E+00  0.000000000000E+00  0.000000000000E+00  0.000000000000E+00
  0.000000000000E+00  0.000000000000E+00  0.000000000000E+00  0.000000000000E+00
  0.000000000000E+00  0.000000000000E+00  0.000000000000E+00  0.000000000000E+00
  0.000000000000E+00  0.000000000000E+00  0.000000000000E+00  0.000000000000E+00
  0.000000000000E+00  0.000000000000E+00  0.000000000000E+00  0.000000000000E+00
  0.000000000000E+00  0.000000000000E+00  0.000000000000E+00  0.000000000000E+00
  0.000000000000E+00  0.000000000000E+00  0.000000000000E+00  0.000000000000E+00
  0.000000000000E+00  0.000000000000E+00  0.000000000000E+00  0.000000000000E+00
  0.000000000000E+00
</data>
</radfunc>
</valence-charge>
<pseudocore-charge matching-radius="0.336125624912"
 number-of-continuous-derivatives="4">
<annotation model-charge-form="Teter function with specified parameters" />
<radfunc>
<data npts="290">
  4.052442597584E+01  4.051599525160E+01  4.049079977092E+01  4.044878769312E+01
  4.039042351545E+01  4.031376396166E+01  4.021619911749E+01  4.010466699403E+01
  3.997950062393E+01  3.983385679947E+01  3.967010381267E+01  3.949261082099E+01
  3.927878799108E+01  3.905627432306E+01  3.879483933932E+01  3.853488470216E+01
  3.823695112081E+01  3.795593365886E+01  3.764163021702E+01  3.729042641164E+01
  3.689840330255E+01  3.655256617502E+01  3.617560571532E+01  3.576510412762E+01
  3.531853610850E+01  3.483328250968E+01  3.430664931456E+01  3.388286960873E+01
  3.343310551348E+01  3.295619555298E+01  3.245099345862E+01  3.191638126031E+01
  3.135128442132E+01  3.075468918007E+01  3.012566224973E+01  2.946337300394E+01
  2.876711824454E+01  2.803634960112E+01  2.752980803513E+01  2.700770548861E+01
  2.647003396708E+01  2.591683766425E+01  2.534821786848E+01  2.476433800798E+01
  2.416542879903E+01  2.355179345409E+01  2.292381289828E+01  2.228195093338E+01
  2.162675927912E+01  2.095888241079E+01  2.027906210172E+01  1.958814156787E+01
  1.888706910061E+01  1.817690106263E+01  1.745880411159E+01  1.673405650601E+01
  1.600404833993E+01  1.527028054615E+01  1.453436250409E+01  1.379800808742E+01
  1.306302998981E+01  1.233133217545E+01  1.160490031425E+01  1.088579008213E+01
  1.017611323426E+01  9.478021394757E+00  8.793687550899E+00  8.457359713315E+00
  8.125285293656E+00  7.797732326122E+00  7.474965909381E+00  7.157247386435E+00
  6.844833499979E+00  6.537975526131E+00  6.236918389774E+00  5.941899765141E+00
  5.653149165645E+00  5.370887027344E+00  5.095323790807E+00  4.826658986517E+00
  4.565080329326E+00  4.310762827790E+00  4.063867914566E+00  3.824542604333E+00
  3.592918685956E+00  3.369111955850E+00  3.153221499642E+00  2.945329029394E+00
  2.745498283649E+00  2.553774497612E+00  2.370183950638E+00  2.194733598058E+00
  2.027410794123E+00  1.868183112467E+00  1.716998270059E+00  1.573784160067E+00
  1.438448998370E+00  1.310881587722E+00  1.190951702656E+00  1.078510597281E+00
  9.733916369869E-01  8.754110539376E-01  7.843688249345E-01  7.000496688782E-01
  6.222241596556E-01  5.506499487931E-01  4.850730907225E-01  4.252294619871E-01
  3.708462642084E-01  3.216435991667E-01  2.773361029385E-01  2.376346247203E-01
  2.022479347760E-01  1.708844449053E-01  1.432539239795E-01  1.190691904507E-01
  9.804776335331E-02  7.991345319199E-02  6.439787429196E-02  5.124186067811E-02
  4.019676837437E-02  3.102564817682E-02  2.350427445727E-02  1.742201738939E-02
  1.258254814334E-02  8.804369041022E-03  5.921163368457E-03  3.781962460814E-03
  2.251130754664E-03  1.208172679369E-03  5.473684643682E-04  1.772490944868E-04
  1.992366957759E-05  1.027523311164E-05  9.504364224673E-05  2.318161773624E-04
  3.879482558411E-04  5.394377557601E-04  6.697770151337E-04  7.688065118120E-04
  8.315935267950E-04  8.573577489897E-04  8.484638143648E-04  8.094982327320E-04
  7.464451105202E-04  6.659716202695E-04  5.748304103264E-04  4.793822219697E-04
  3.852380295762E-04  2.970161934163E-04  2.182065661306E-04  1.511303683726E-04
  9.698207810079E-05  5.593767169878E-05  2.731239514215E-05  9.750876956041E-06
  1.432829752451E-06  2.787900404235E-07  4.142241102267E-06  1.097693569384E-05
  1.897113422010E-05  2.664362306706E-05  3.289958344540E-05  3.704744529552E-05
  3.878059402624E-05  3.813003280622E-05  3.539570748302E-05  3.106508857414E-05
  2.572774265305E-05  1.999403928324E-05  1.442491224470E-05  9.477859754415E-06
  5.472303606634E-06  2.575234006939E-06  8.059560391754E-07  5.692437339317E-08
  1.262730055777E-07  7.568359392844E-07  1.676270538051E-06  2.633326946260E-06
  3.426275466866E-06  3.920870205570E-06  4.056808653408E-06  3.843237887139E-06
  3.345256569193E-06  2.664394950082E-06  1.916601937457E-06  1.211277433375E-06
  6.343847941289E-07  2.377613144677E-07  3.557235349663E-08  0.000000000000E+00
  0.000000000000E+00  0.000000000000E+00  0.000000000000E+00  0.000000000000E+00
  0.000000000000E+00  0.000000000000E+00  0.000000000000E+00  0.000000000000E+00
  0.000000000000E+00  0.000000000000E+00  0.000000000000E+00  0.000000000000E+00
  0.000000000000E+00  0.000000000000E+00  0.000000000000E+00  0.000000000000E+00
  0.000000000000E+00  0.000000000000E+00  0.000000000000E+00  0.000000000000E+00
  0.000000000000E+00  0.000000000000E+00  0.000000000000E+00  0.000000000000E+00
  0.000000000000E+00  0.000000000000E+00  0.000000000000E+00  0.000000000000E+00
  0.000000000000E+00  0.000000000000E+00  0.000000000000E+00  0.000000000000E+00
  0.000000000000E+00  0.000000000000E+00  0.000000000000E+00  0.000000000000E+00
  0.000000000000E+00  0.000000000000E+00  0.000000000000E+00  0.000000000000E+00
  0.000000000000E+00  0.000000000000E+00  0.000000000000E+00  0.000000000000E+00
  0.000000000000E+00  0.000000000000E+00  0.000000000000E+00  0.000000000000E+00
  0.000000000000E+00  0.000000000000E+00  0.000000000000E+00  0.000000000000E+00
  0.000000000000E+00  0.000000000000E+00  0.000000000000E+00  0.000000000000E+00
  0.000000000000E+00  0.000000000000E+00  0.000000000000E+00  0.000000000000E+00
  0.000000000000E+00  0.000000000000E+00  0.000000000000E+00  0.000000000000E+00
  0.000000000000E+00  0.000000000000E+00  0.000000000000E+00  0.000000000000E+00
  0.000000000000E+00  0.000000000000E+00  0.000000000000E+00  0.000000000000E+00
  0.000000000000E+00  0.000000000000E+00  0.000000000000E+00  0.000000000000E+00
  0.000000000000E+00  0.000000000000E+00  0.000000000000E+00  0.000000000000E+00
  0.000000000000E+00  0.000000000000E+00  0.000000000000E+00  0.000000000000E+00
  0.000000000000E+00  0.000000000000E+00  0.000000000000E+00  0.000000000000E+00
  0.000000000000E+00  0.000000000000E+00  0.000000000000E+00  0.000000000000E+00
  0.000000000000E+00  0.000000000000E+00  0.000000000000E+00  0.000000000000E+00
  0.000000000000E+00  0.000000000000E+00
</data>
</radfunc>
</pseudocore-charge>
<semilocal-potentials set="scalar_relativistic">
<slps n="2" l="s" rc="1.30942325042" eref="-1.09221001686">
<radfunc>
<data npts="290">
 -8.924363027320E+00 -8.924531362140E+00 -8.925034501095E+00 -8.925873839351E+00
 -8.927040671312E+00 -8.928574688691E+00 -8.930529366203E+00 -8.932767064674E+00
 -8.935282359011E+00 -8.938214540698E+00 -8.941518204034E+00 -8.945107295939E+00
 -8.949442353271E+00 -8.953966729112E+00 -8.959299534595E+00 -8.964620335930E+00
 -8.970740720047E+00 -8.976535263472E+00 -8.983040963691E+00 -8.990341292040E+00
 -8.998528341739E+00 -9.005784123665E+00 -9.013728204452E+00 -9.022420764947E+00
 -9.031925980611E+00 -9.042311945857E+00 -9.053650480853E+00 -9.062824630006E+00
 -9.072609644994E+00 -9.083039053809E+00 -9.094146875746E+00 -9.105967326487E+00
 -9.118534449422E+00 -9.131881660689E+00 -9.146041193842E+00 -9.161043428438E+00
 -9.176916085174E+00 -9.193683268591E+00 -9.205368143616E+00 -9.217463611515E+00
 -9.229972576635E+00 -9.242896331986E+00 -9.256234319190E+00 -9.269983865284E+00
 -9.284139895091E+00 -9.298694617962E+00 -9.313637187815E+00 -9.328953335581E+00
 -9.344624973388E+00 -9.360629770110E+00 -9.376940698295E+00 -9.393525552906E+00
 -9.410346442890E+00 -9.427359257213E+00 -9.444513107747E+00 -9.461749752295E+00
 -9.479003001992E+00 -9.496198118445E+00 -9.513251207192E+00 -9.530068615373E+00
 -9.546546342932E+00 -9.562569478129E+00 -9.578011669686E+00 -9.592734649348E+00
 -9.606587820189E+00 -9.619407927304E+00 -9.631018828831E+00 -9.636312229640E+00
 -9.641231386297E+00 -9.645750630558E+00 -9.649843494151E+00 -9.653482718756E+00
 -9.656640268968E+00 -9.659287348409E+00 -9.661394419146E+00 -9.662931224582E+00
 -9.663866815977E+00 -9.664169582749E+00 -9.663807286710E+00 -9.662747100379E+00
 -9.660955649519E+00 -9.658399060003E+00 -9.655043009150E+00 -9.650852781628E+00
 -9.645793329997E+00 -9.639829339966E+00 -9.632925300408E+00 -9.625045578126E+00
 -9.616154497341E+00 -9.606216423839E+00 -9.595195853632E+00 -9.583057505952E+00
 -9.569766420313E+00 -9.555288057307E+00 -9.539588402691E+00 -9.522634074252E+00
 -9.504392430787E+00 -9.484831682472E+00 -9.463921001711E+00 -9.441630633480E+00
 -9.417932004016E+00 -9.392797826608E+00 -9.366202203090E+00 -9.338120719564E+00
 -9.308530534778E+00 -9.277410459512E+00 -9.244741025304E+00 -9.210504540860E+00
 -9.174685134507E+00 -9.137268781202E+00 -9.098243312717E+00 -9.057598409880E+00
 -9.015325576035E+00 -8.971418091221E+00 -8.925870947045E+00 -8.878680762711E+00
 -8.829845683245E+00 -8.779365261620E+00 -8.727240327222E+00 -8.673472843848E+00
 -8.618065761301E+00 -8.561022865535E+00 -8.502348633218E+00 -8.442048097558E+00
 -8.380126733213E+00 -8.316590369055E+00 -8.251445138534E+00 -8.184697478230E+00
 -8.116354186047E+00 -8.046422551114E+00 -7.974910567998E+00 -7.901827248109E+00
 -7.827183041137E+00 -7.750990379009E+00 -7.673264354041E+00 -7.594023541655E+00
 -7.513290976139E+00 -7.431095285397E+00 -7.347471987313E+00 -7.262464946205E+00
 -7.176127983030E+00 -7.088526627220E+00 -6.999739991401E+00 -6.909862742742E+00
 -6.819007136537E+00 -6.727305068731E+00 -6.634910094875E+00 -6.541999353495E+00
 -6.448775322585E+00 -6.355467329191E+00 -6.262332724453E+00 -6.169657630622E+00
 -6.077757163136E+00 -5.986975030736E+00 -5.897682420523E+00 -5.810276083703E+00
 -5.725175552238E+00 -5.642819437208E+00 -5.563660802405E+00 -5.488161422821E+00