<?xml version="1.0" encoding="UTF-8" ?>
<psml version="1.1" energy_unit="hartree" length_unit="bohr"
 uuid="458de670-1d65-11e8-4f1c-6316e7fae601"
 xmlns="http://esl.cecam.org/PSML/ns/1.1">
<provenance creator="ONCVPSP-3.3.0+psml-3.3.0-73 (scalar-relativistic)"
 date="2018-03-01">
<annotation action="semilocal-pseudopotential-generation"
 action-cont="projectors-generation" />
<input-file name="oncvpsp-input">
<![CDATA[# atsym z nc nv iexc psfile
Sc 21 3 4 -116133 upf
# n l f
1 0 2.0
2 0 2.0
2 1 6.0
3 0 2.0
3 1 6.0
3 2 1.0
4 0 2.0
# lmax
2
# l rc ep ncon nbas qcut
0 1.35 0.0 4 9 8.6
1 1.35 0.0 4 8 9.0
2 1.65 0.0 4 8 8.8
# lloc lpopt rc5 dvloc0
4 5 1.3 0.0
# l nproj debl
0 2 2.0
1 2 2.0
2 2 2.0
# icmod fcfact
3 5 1.25
# epsh1 epsh2 depsh
-12.0 12.0 0.02
# rlmax drl
6.0 0.01
 0
]]>
</input-file>
</provenance>
<pseudo-atom-spec atomic-label="Sc" atomic-number="21" z-pseudo="11"
 flavor="Hamann&apos;s oncvpsp" relativity="scalar" spin-dft="no"
 core-corrections="yes">
<annotation pseudo-energy="-46.5639528074" />
<exchange-correlation>
<annotation oncvpsp-xc-code="-116133" oncvpsp-xc-type="libxc-interface" />
<libxc-info number-of-functionals="2">
<functional name="Perdew, Burke &amp; Ernzerhof SOL (GGA)" type="exchange"
 id="116" />
<functional name="Perdew, Burke &amp; Ernzerhof SOL (GGA)" type="correlation"
 id="133" />
</libxc-info>
</exchange-correlation>
<valence-configuration total-valence-charge="11">
<shell n="3" l="s" occupation="2" />
<shell n="3" l="p" occupation="6" />
<shell n="3" l="d" occupation="1" />
<shell n="4" l="s" occupation="2" />
</valence-configuration>
</pseudo-atom-spec>
<grid npts="457">
<annotation type="sampled from oncvpsp log grid"
 recipe="r(i:1..N) = r1*exp(a*(i-1)) + r=0; resampled"
 recipe-cont="r1: scale; a: step" scale="0.238095238095E-04"
 step="0.119285708653E-01" delta="0.500000000000E-02" rmax="44.1744182858" />
<grid-data>
  0.000000000000E+00  5.044299027886E-03  1.007559144583E-02  1.511499382701E-02
  2.012520320902E-02  2.524468824449E-02  3.055330615518E-02  3.567835927215E-02
  4.068089620927E-02  4.583483127647E-02  5.102937504002E-02  5.613895828010E-02
  6.176016528329E-02  6.713856230878E-02  7.298533817411E-02  7.840047603693E-02
  8.421738936325E-02  8.939316979483E-02  9.488704015153E-02  1.007185494080E-01
  1.069084479677E-01  1.121331635373E-01  1.176132158300E-01  1.233610833896E-01
  1.293898545982E-01  1.357132574790E-01  1.423456909567E-01  1.475318751429E-01
  1.529070113532E-01  1.584779838142E-01  1.642519275704E-01  1.702362376230E-01
  1.764385784003E-01  1.828668935745E-01  1.895294162352E-01  1.964346794343E-01
  2.035915271145E-01  2.110091254365E-01  2.161037297611E-01  2.213213382124E-01
  2.266649206022E-01  2.321375184453E-01  2.377422466906E-01  2.434822954947E-01
  2.493609320371E-01  2.553815023802E-01  2.615474333737E-01  2.678622346051E-01
  2.743295003974E-01  2.809529118550E-01  2.877362389588E-01  2.946833427122E-01
  3.017981773387E-01  3.090847925323E-01  3.165473357632E-01  3.241900546379E-01
  3.320172993171E-01  3.400335249918E-01  3.482432944192E-01  3.566512805196E-01
  3.652622690365E-01  3.740811612601E-01  3.831129768176E-01  3.923628565299E-01
  4.018360653379E-01  4.115379952994E-01  4.214741686579E-01  4.265318586818E-01
  4.316502409860E-01  4.368300438779E-01  4.420720044044E-01  4.473768684572E-01
  4.527453908787E-01  4.581783355693E-01  4.636764755961E-01  4.692405933033E-01
  4.748714804229E-01  4.805699381880E-01  4.863367774462E-01  4.921728187756E-01
  4.980788926009E-01  5.040558393121E-01  5.101045093838E-01  5.162257634964E-01
  5.224204726584E-01  5.286895183303E-01  5.350337925503E-01  5.414541980609E-01
  5.479516484376E-01  5.545270682189E-01  5.611813930375E-01  5.679155697539E-01
  5.747305565910E-01  5.816273232701E-01  5.886068511493E-01  5.956701333631E-01
  6.028181749635E-01  6.100519930630E-01  6.173726169798E-01  6.247810883835E-01
  6.322784614441E-01  6.398658029815E-01  6.475441926172E-01  6.553147229287E-01
  6.631784996038E-01  6.711366415990E-01  6.791902812982E-01  6.873405646738E-01
  6.955886514499E-01  7.039357152673E-01  7.123829438505E-01  7.209315391767E-01
  7.295827176468E-01  7.383377102586E-01  7.471977627817E-01  7.561641359351E-01
  7.652381055663E-01  7.744209628331E-01  7.837140143871E-01  7.931185825597E-01
  8.026360055504E-01  8.122676376171E-01  8.220148492685E-01  8.318790274597E-01
  8.418615757892E-01  8.519639146987E-01  8.621874816750E-01  8.725337314552E-01
  8.830041362326E-01  8.936001858674E-01  9.043233880978E-01  9.151752687550E-01
  9.261573719800E-01  9.372712604438E-01  9.485185155691E-01  9.599007377560E-01
  9.714195466090E-01  9.830765811683E-01  9.948735001424E-01  1.006811982144E+00
  1.018893725930E+00  1.031120450641E+00  1.043493896049E+00  1.056015822801E+00
  1.068688012675E+00  1.081512268827E+00  1.094490416053E+00  1.107624301046E+00
  1.120915792658E+00  1.134366782170E+00  1.147979183556E+00  1.161754933759E+00
  1.175695992964E+00  1.189804344879E+00  1.204081997018E+00  1.218530980982E+00
  1.233153352754E+00  1.247951192987E+00  1.262926607303E+00  1.278081726590E+00
  1.293418707309E+00  1.308939731797E+00  1.324647008579E+00  1.340542772682E+00
  1.356629285954E+00  1.372908837385E+00  1.389383743434E+00  1.406056348355E+00
  1.422929024535E+00  1.440004172830E+00  1.457284222904E+00  1.474771633579E+00
  1.492468893182E+00  1.510378519900E+00  1.528503062139E+00  1.546845098884E+00
  1.565407240071E+00  1.584192126952E+00  1.603202432475E+00  1.622440861665E+00
  1.641910152005E+00  1.661613073829E+00  1.681552430715E+00  1.701731059883E+00
  1.722151832602E+00  1.742817654593E+00  1.763731466448E+00  1.784896244046E+00
  1.806314998974E+00  1.827990778962E+00  1.849926668309E+00  1.872125788329E+00
  1.894591297789E+00  1.917326393363E+00  1.940334310083E+00  1.963618321804E+00
  1.987181741666E+00  2.011027922566E+00  2.035160257636E+00  2.059582180728E+00
  2.084297166897E+00  2.109308732900E+00  2.134620437694E+00  2.160235882947E+00
  2.186158713542E+00  2.212392618105E+00  2.238941329522E+00  2.265808625476E+00
  2.292998328982E+00  2.320514308930E+00  2.348360480637E+00  2.376540806404E+00
  2.405059296081E+00  2.433920007634E+00  2.463127047726E+00  2.492684572298E+00
  2.522596787166E+00  2.552867948612E+00  2.583502363995E+00  2.614504392363E+00
  2.645878445072E+00  2.677628986413E+00  2.709760534250E+00  2.742277660661E+00
  2.775184992588E+00  2.808487212499E+00  2.842189059049E+00  2.876295327758E+00
  2.910810871691E+00  2.945740602151E+00  2.981089489377E+00  3.016862563250E+00
  3.053064914009E+00  3.089701692977E+00  3.126778113293E+00  3.164299450652E+00
  3.202271044060E+00  3.240698296589E+00  3.279586676148E+00  3.318941716262E+00
  3.358769016857E+00  3.399074245059E+00  3.439863136000E+00  3.481141493632E+00
  3.522915191555E+00  3.565190173854E+00  3.607972455940E+00  3.651268125411E+00
  3.695083342916E+00  3.739424343031E+00  3.784297435148E+00  3.829709004370E+00
  3.875665512422E+00  3.922173498571E+00  3.969239580554E+00  4.016870455521E+00
  4.065072900987E+00  4.113853775799E+00  4.163220021108E+00  4.213178661361E+00
  4.263736805298E+00  4.314901646961E+00  4.366680466725E+00  4.419080632326E+00
  4.472109599914E+00  4.525774915112E+00  4.580084214094E+00  4.635045224663E+00
  4.690665767359E+00  4.746953756567E+00  4.803917201646E+00  4.861564208066E+00
  4.919902978563E+00  4.978941814305E+00  5.038689116077E+00  5.099153385470E+00
  5.160343226096E+00  5.222267344809E+00  5.284934552946E+00  5.348353767582E+00
  5.412534012793E+00  5.477484420946E+00  5.543214233998E+00  5.609732804806E+00
  5.677049598463E+00  5.745174193645E+00  5.814116283969E+00  5.883885679376E+00
  5.954492307529E+00  6.025946215219E+00  6.098257569802E+00  6.171436660639E+00
  6.245493900567E+00  6.320439827374E+00  6.396285105302E+00  6.473040526566E+00
  6.550717012885E+00  6.629325617039E+00  6.708877524444E+00  6.789384054737E+00
  6.870856663394E+00  6.953306943355E+00  7.036746626675E+00  7.121187586195E+00
  7.206641837229E+00  7.293121539276E+00  7.380638997747E+00  7.469206665720E+00
  7.558837145709E+00  7.649543191458E+00  7.741337709755E+00  7.834233762272E+00
  7.928244567419E+00  8.023383502228E+00  8.119664104255E+00  8.217100073506E+00
  8.315705274388E+00  8.415493737681E+00  8.516479662533E+00  8.618677418483E+00
  8.722101547505E+00  8.826766766075E+00  8.932687967268E+00  9.039880222875E+00
  9.148358785550E+00  9.258139090977E+00  9.369236760068E+00  9.481667601189E+00
  9.595447612403E+00  9.710592983752E+00  9.827120099557E+00  9.945045540752E+00
  1.006438608724E+01  1.018515872029E+01  1.030738062493E+01  1.043106919243E+01
  1.055624202274E+01  1.068291692701E+01  1.081111193014E+01  1.094084527330E+01
  1.107213541658E+01  1.120500104158E+01  1.133946105408E+01  1.147553458672E+01
  1.161324100177E+01  1.175259989379E+01  1.189363109251E+01  1.203635466562E+01
  1.218079092161E+01  1.232696041267E+01  1.247488393762E+01  1.262458254487E+01
  1.277607753541E+01  1.292939046584E+01  1.308454315143E+01  1.324155766924E+01
  1.340045636127E+01  1.356126183761E+01  1.372399697966E+01  1.388868494342E+01
  1.405534916274E+01  1.422401335269E+01  1.439470151292E+01  1.456743793108E+01
  1.474224718625E+01  1.491915415249E+01  1.509818400232E+01  1.527936221034E+01
  1.546271455687E+01  1.564826713155E+01  1.583604633713E+01  1.602607889317E+01
  1.621839183989E+01  1.641301254197E+01  1.660996869247E+01  1.680928831678E+01
  1.701099977659E+01  1.721513177390E+01  1.742171335519E+01  1.763077391545E+01
  1.784234320244E+01  1.805645132087E+01  1.827312873672E+01  1.849240628156E+01
  1.871431515694E+01  1.893888693882E+01  1.916615358209E+01  1.939614742507E+01
  1.962890119417E+01  1.986444800850E+01  2.010282138461E+01  2.034405524122E+01
  2.058818390411E+01  2.083524211096E+01  2.108526501630E+01  2.133828819649E+01
  2.159434765485E+01  2.185347982671E+01  2.211572158463E+01  2.238111024364E+01
  2.264968356657E+01  2.292147976937E+01  2.319653752660E+01  2.347489597692E+01
  2.375659472864E+01  2.404167386538E+01  2.433017395177E+01  2.462213603919E+01
  2.491760167166E+01  2.521661289172E+01  2.551921224642E+01  2.582544279338E+01
  2.613534810690E+01  2.644897228418E+01  2.676635995159E+01  2.708755627101E+01
  2.741260694626E+01  2.774155822962E+01  2.807445692837E+01  2.841135041151E+01
  2.875228661645E+01  2.909731405585E+01  2.944648182452E+01  2.979983960641E+01
  3.015743768169E+01  3.051932693387E+01  3.088555885708E+01  3.125618556336E+01
  3.163125979012E+01  3.201083490760E+01  3.239496492650E+01  3.278370450561E+01
  3.317710895968E+01  3.357523426720E+01  3.397813707840E+01  3.438587472334E+01
  3.479850522002E+01  3.521608728266E+01  3.563868033006E+01  3.606634449402E+01
  3.649914062795E+01  3.693713031548E+01  3.738037587927E+01  3.782894038982E+01
  3.828288767450E+01  3.874228232659E+01  3.920718971451E+01  3.967767599108E+01
  4.015380810298E+01  4.063565380021E+01  4.112328164581E+01  4.161676102556E+01
  4.211616215787E+01  4.262155610377E+01  4.313301477701E+01  4.365061095433E+01
  4.417441828579E+01
</grid-data>
</grid>
<valence-charge total-charge="11" is-unscreening-charge="yes"
 rescaled-to-z-pseudo="no">
<radfunc>
<data npts="457">
  8.759386634723E-01  8.774449992790E-01  8.819478727018E-01  8.894599871165E-01
  8.999039347027E-01  9.136357948382E-01  9.311355170819E-01  9.511723335088E-01
  9.736991676618E-01  9.999657396866E-01  1.029568362354E+00  1.061739114234E+00
  1.100611821916E+00  1.141201395224E+00  1.189070561171E+00  1.236862950204E+00
  1.291878248166E+00  1.344007621784E+00  1.402587923813E+00  1.468394794968E+00
  1.542290806024E+00  1.607871785614E+00  1.679777829499E+00  1.758590971456E+00
  1.844940593390E+00  1.939505829093E+00  2.043017708521E+00  2.126992831507E+00
  2.216791947169E+00  2.312783807831E+00  2.415354630035E+00  2.524907847108E+00
  2.641863605416E+00  2.766657949932E+00  2.899741635888E+00  3.041578493414E+00
  3.192643260950E+00  3.353418790961E+00  3.466237991737E+00  3.583734399062E+00
  3.706052064213E+00  3.833333627123E+00  3.965719428171E+00  4.103346503240E+00
  4.246347451117E+00  4.394849161707E+00  4.548971392948E+00  4.708825183869E+00
  4.874511090794E+00  5.046117233488E+00  5.223717137939E+00  5.407367362650E+00
  5.597104895732E+00  5.792944310925E+00  5.994874671887E+00  6.202856175863E+00
  6.416816530246E+00  6.636647058663E+00  6.862198537242E+00  7.093276766702E+00
  7.329637892092E+00  7.570983489462E+00  7.816955447646E+00  8.067130683912E+00
  8.321015744466E+00  8.578041354941E+00  8.837557002084E+00  8.968021784405E+00
  9.098825645849E+00  9.229862109559E+00  9.361018681061E+00  9.492176714595E+00
  9.623211289467E+00  9.753991097917E+00  9.884378346144E+00  1.001422867017E+01
  1.014339106839E+01  1.027170785262E+01  1.039901461975E+01  1.052514024598E+01
  1.064990690584E+01  1.077313011812E+01  1.089461882113E+01  1.101417547951E+01
  1.113159622494E+01  1.124667103317E+01  1.135918393969E+01  1.146891329648E+01
  1.157563207190E+01  1.167910819625E+01  1.177910495485E+01  1.187538143073E+01
  1.196769299873E+01  1.205579187254E+01  1.213942770605E+01  1.221834825011E+01
  1.229230006528E+01  1.236102929103E+01  1.242428247129E+01  1.248180743559E+01
  1.253335423509E+01  1.257867613143E+01  1.261753063654E+01  1.264968060031E+01
  1.267489534262E+01  1.269295182564E+01  1.270363586120E+01  1.270674334777E+01
  1.270208153052E+01  1.268947027729E+01  1.266874336270E+01  1.263974975180E+01
  1.260235487407E+01  1.255644187804E+01  1.250191285628E+01  1.243869002999E+01
  1.236671688220E+01  1.228595922835E+01  1.219640621289E+01  1.209807122052E+01
  1.199099269100E+01  1.187523482675E+01  1.175088818265E+01  1.161807012860E+01
  1.147692517553E+01  1.132762515692E+01  1.117036925865E+01  1.100538389110E+01
  1.083292239876E+01  1.065326460369E+01  1.046671618059E+01  1.027360786257E+01
  1.007429447787E+01  9.869153819223E+00  9.658585348699E+00  9.443008742083E+00
  9.222862277839E+00  8.998601076822E+00  8.770695199761E+00  8.539627610423E+00
  8.305892013176E+00  8.069990574485E+00  7.832431538684E+00  7.593726749237E+00
  7.354389087721E+00  7.114929843842E+00  6.875856031157E+00  6.637667664648E+00
  6.400855018110E+00  6.165895881215E+00  5.933252838360E+00  5.703370593668E+00
  5.476673368930E+00  5.253562403582E+00  5.034413587990E+00  4.819575263118E+00
  4.609366220952E+00  4.404073940669E+00  4.203953095289E+00  4.009224362261E+00
  3.820073569016E+00  3.636651200872E+00  3.459072293768E+00  3.287416728330E+00
  3.121729934902E+00  2.962024874073E+00  2.808287933326E+00  2.660487081286E+00
  2.518573957502E+00  2.382484308788E+00  2.252139707282E+00  2.127448809241E+00
  2.008308686904E+00  1.894606139903E+00  1.786218984601E+00  1.683017311456E+00
  1.584864700430E+00  1.491619384198E+00  1.403135348916E+00  1.319263362495E+00
  1.239851920876E+00  1.164748103662E+00  1.093798214872E+00  1.026847854011E+00
  9.637416994446E-01  9.043240140378E-01  8.484394122043E-01  7.959333546480E-01
  7.466526855073E-01  7.004461135887E-01  6.571646525848E-01  6.166620196141E-01
  5.787949927926E-01  5.434237287271E-01  5.104120409664E-01  4.796276405670E-01
  4.509423400732E-01  4.242322223209E-01  3.993777755887E-01  3.762639967285E-01
  3.547804640173E-01  3.348213815791E-01  3.162855973398E-01  2.990765965888E-01
  2.831024733365E-01  2.682758817574E-01  2.545139700950E-01  2.417382994472E-01
  2.298747498490E-01  2.188534159823E-01  2.086084946831E-01  1.990781661596E-01
  1.902044705079E-01  1.819331807358E-01  1.742136731222E-01  1.669987953913E-01
  1.602447329228E-01  1.539108730601E-01  1.479596675465E-01  1.423564931897E-01
  1.370695109991E-01  1.320695242199E-01  1.273298358637E-01  1.228261064737E-01
  1.185362129457E-01  1.144401092493E-01  1.105196898616E-01  1.067586566477E-01
  1.031423898218E-01  9.965782349842E-02  9.629332622729E-02  9.303858678928E-02
  8.988450542890E-02  8.682309061292E-02  8.384736133237E-02  8.095125490825E-02
  7.812954021729E-02  7.537773622012E-02  7.269203565044E-02  7.006923370576E-02
  6.750666156869E-02  6.500212457988E-02  6.255384487903E-02  6.016040832830E-02
  5.782071553130E-02  5.553393676205E-02  5.329947061896E-02  5.111690622151E-02
  4.898598876917E-02  4.690658828510E-02  4.487867136989E-02  4.290227579360E-02
  4.097748775757E-02  3.910442166048E-02  3.728320220679E-02  3.551394869882E-02
  3.379676135783E-02  3.213170952295E-02  3.051882158169E-02  2.895807649007E-02
  2.744939674612E-02  2.599264268664E-02  2.458760798363E-02  2.323401622537E-02
  2.193151847502E-02  2.067969171014E-02  1.947803805638E-02  1.832598473990E-02
  1.722288469405E-02  1.616801776681E-02  1.516059247680E-02  1.419974833091E-02
  1.328455857527E-02  1.241403345904E-02  1.158712393701E-02  1.080272579789E-02
  1.005968419178E-02  9.356798524205E-03  8.692827676825E-03  8.066495506829E-03
  7.476496569045E-03  6.921501997593E-03  6.400165478370E-03  5.911129240022E-03
  5.453029989951E-03  5.024504723081E-03  4.624196334775E-03  4.250758974955E-03
  3.902863087873E-03  3.579200090663E-03  3.278486653217E-03  2.999468551724E-03
  2.740924077926E-03  2.501666995395E-03  2.280549042758E-03  2.076461991464E-03
  1.888339272351E-03  1.715157190880E-03  1.555935755333E-03  1.409739145731E-03
  1.275675853589E-03  1.152898524137E-03  1.040603533296E-03  9.380303316261E-04
  8.444605868407E-04  7.592171553049E-04  6.816629113881E-04  6.111994616836E-04
  5.472657690263E-04  4.893367090166E-04  4.369215794631E-04  3.895625808417E-04
  3.468332835981E-04  3.083370959237E-04  2.737057435642E-04  2.425977712875E-04
  2.146970738807E-04  1.897114629605E-04  1.673712744917E-04  1.474280207005E-04
  1.296530890440E-04  1.138364900455E-04  9.978565510450E-05  8.732428483431E-05
  7.629124804093E-05  6.653953111924E-05  5.793523738901E-05  5.035663570197E-05
  4.369325751074E-05  3.784504148383E-05  3.272152466933E-05  2.824107914331E-05
  2.433019302070E-05  2.092279465314E-05  1.795961878622E-05  1.538761339649E-05
  1.315938587784E-05  1.123268719558E-05  9.569932578606E-06  8.137757274828E-06
  6.906605854909E-06  5.850353516126E-06  4.945957811949E-06  4.173139215774E-06
  3.514088919122E-06  2.953202266167E-06  2.476836237618E-06  2.073089417573E-06
  1.731602906442E-06  1.443380680826E-06  1.200627946446E-06  9.966060819116E-07
  8.255028283525E-07  6.823164416507E-07  5.627525891304E-07  4.631328401933E-07
  3.803136694823E-07  3.116149608905E-07  2.547570702948E-07  2.078055735676E-07
  1.691228935936E-07  1.373260651716E-07  1.112499593622E-07  8.991534873785E-08
  7.250125180166E-08  5.832104841653E-08  4.680190827930E-08  3.746712125188E-08
  2.992096170362E-08  2.383575898148E-08  1.894088277982E-08  1.501338564625E-08
  1.187007526819E-08  9.360816693231E-09  7.362889411814E-09  5.776246451321E-09
  4.519542476065E-09  3.526815540925E-09  2.744722786620E-09  2.130244166686E-09
  1.648780444392E-09  1.272582189040E-09  9.794567324547E-10  7.517037607005E-10
  5.172070480315E-10  3.937590497641E-10  2.988728344087E-10  2.261607728072E-10
  1.706113805370E-10  1.283049188421E-10  9.618507558157E-11  7.187624913094E-11
  5.353779448866E-11  3.974812972570E-11  2.941288571228E-11  2.169235070687E-11
  1.594434708770E-11  1.167940890760E-11  8.525730740720E-12  6.201851624384E-12
  4.495440841244E-12  3.246880181833E-12  2.336603162400E-12  1.675366386559E-12
  1.196801009854E-12  8.517307595366E-13  6.038535538945E-13  4.264717370889E-13
  3.000256514889E-13  2.102402860701E-13  1.467379904502E-13  1.020041101091E-13
  7.061880898837E-14  4.868885853299E-14  3.342903900054E-14  2.285502100921E-14
  1.555897060839E-14  1.054628233912E-14  7.117291353950E-15  4.781940335877E-15
  3.198486920872E-15  2.129671886388E-15  1.411513049165E-15  9.311877976453E-16
  6.114284456942E-16  3.995632130594E-16  2.598555863544E-16  1.681745327805E-16
  1.083040294697E-16  6.940000562378E-17  4.424649585409E-17  2.806573420630E-17
  1.771028001349E-17  1.111729071433E-17  6.941761782587E-18  4.311317647230E-18
  2.663127370403E-18  1.636014487048E-18  9.994636187550E-19  6.071590515998E-19
  3.667450378369E-19  2.202533904051E-19  1.315065778985E-19  7.805638602256E-20
  4.605477796105E-20  2.700940775619E-20  1.574338038501E-20  9.119930477306E-21
  5.250048649498E-21  3.003174847934E-21  1.706908250092E-21  9.638694730655E-22
  5.407182476721E-22  0.000000000000E+00  0.000000000000E+00  0.000000000000E+00
  0.000000000000E+00
</data>
</radfunc>
</valence-charge>
<pseudocore-charge matching-radius="0.574730556591"
 number-of-continuous-derivatives="4">
<annotation model-charge-form="Teter function with specified parameters" />
<radfunc>
<data npts="290">
  6.370205913964E+01  6.369213736347E+01  6.366248293118E+01  6.361302613498E+01
  6.354429950406E+01  6.345399365384E+01  6.333900263289E+01  6.320746912512E+01
  6.305975368030E+01  6.288773453706E+01  6.269414973884E+01  6.248410911400E+01
  6.223078107251E+01  6.196681119267E+01  6.165621522673E+01  6.134688831579E+01
  6.099176334469E+01  6.065620310640E+01  6.028020107412E+01  5.985917719427E+01
  5.938811154113E+01  5.897156209226E+01  5.851646335383E+01  5.801959385088E+01
  5.747753541522E+01  5.688667728544E+01  5.624322478268E+01  5.572374141737E+01
  5.517071843154E+01  5.458238694942E+01  5.395694605625E+01  5.329257309483E+01
  5.258743610951E+01  5.183970869096E+01  5.104758748495E+01  5.020931263378E+01
  4.932319141793E+01  4.838762535607E+01  4.773571149549E+01  4.706076532099E+01
  4.636242463657E+01  4.564036910874E+01  4.489432600538E+01  4.412407629795E+01
  4.332946112064E+01  4.251038857456E+01  4.166684085828E+01  4.079888169861E+01
  3.990666404700E+01  3.899043799726E+01  3.805055886939E+01  3.708749539252E+01
  3.610183790681E+01  3.509430648982E+01  3.406575889783E+01  3.301719819613E+01
  3.194977993547E+01  3.086481871449E+01  2.976379395021E+01  2.864835466112E+01
  2.752032305097E+01  2.638169666589E+01  2.523464888394E+01  2.408152748625E+01
  2.292485105196E+01  2.176730291790E+01  2.061172244844E+01  2.003559724682E+01
  1.946109337304E+01  1.888860392003E+01  1.831852896980E+01  1.775127494494E+01
  1.718725390448E+01  1.662688278363E+01  1.607058257677E+01  1.551877746396E+01
  1.497189388094E+01  1.443035953348E+01  1.389460235690E+01  1.336504942228E+01
  1.284212579122E+01  1.232625332140E+01  1.181784942587E+01  1.131732578932E+01
  1.082508704528E+01  1.034152941867E+01  9.867039338729E+00  9.401992027941E+00
  8.946750073197E+00  8.501661985962E+00  8.067060758905E+00  7.643262426975E+00
  7.230564641496E+00  6.829245266403E+00  6.439561006259E+00  6.061746076139E+00
  5.696010923908E+00  5.342541015777E+00  5.001495696273E+00  4.673007134004E+00
  4.357179364651E+00  4.054087442663E+00  3.763776712977E+00  3.486262213860E+00
  3.221528221561E+00  2.969527946957E+00  2.730183393674E+00  2.503385386302E+00
  2.288993776348E+00  2.086837832343E+00  1.896716819200E+00  1.718400770370E+00
  1.551631454691E+00  1.396123537944E+00  1.251565937197E+00  1.117623363857E+00
  9.939380491856E-01  8.801316436823E-01  7.758072794212E-01  6.805517820220E-01
  5.939380165721E-01  5.155273494951E-01  4.448722061314E-01  3.815187017083E-01
  3.250093214738E-01  2.748856241009E-01  2.306909410844E-01  1.919730438045E-01
  1.582867492606E-01  1.291964352301E-01  1.042784358227E-01  8.312328910724E-02
  6.533780971220E-02  5.054696105677E-02  3.839550416041E-02  2.854940279544E-02
  2.069696806713E-02  1.454972929251E-02  9.843022249425E-03  6.336290415111E-03
  3.813099625437E-03  2.080871565823E-03  9.703465438765E-04  3.347909715316E-04
  4.896977366841E-05  7.908407994237E-06  1.254731942683E-04  3.328020799244E-04
  5.766206925135E-04  8.174804392239E-04  1.027956420725E-03  1.190842964938E-03
  1.297383618480E-03  1.345570453987E-03  1.338544590050E-03  1.283125943884E-03
  1.188495549401E-03  1.065048415526E-03  9.234290452822E-04  7.737555871884E-04
  6.250323705381E-04  4.847445213905E-04  3.586227058477E-04  2.505610321412E-04
  1.626669736805E-04  9.541902985701E-05  4.790585498665E-05  1.811984017380E-05
  3.278649278984E-06  1.499445704704E-07  5.357379836597E-06  1.564971543849E-05
  2.811939198222E-05  4.036181389368E-05  5.057163950595E-05  5.757723867253E-05
  6.081886146394E-05  6.027969330550E-05  5.638163651714E-05  4.985920927875E-05
  4.162532758589E-05  3.264196143400E-05  2.380685168103E-05  1.586484024558E-05
  9.349172517469E-06  4.554691163597E-06  1.541486125519E-06  1.646138982772E-07
  1.232225338616E-07  1.021016577064E-06  2.429572994598E-06  3.946572748139E-06
  5.242432655532E-06  6.090901681568E-06  6.381644640539E-06  6.115354225100E-06
  5.384188456544E-06  4.342044748579E-06  3.170151253860E-06  2.043584330382E-06
  1.103631196110E-06  4.395499634159E-07  8.147341329981E-08  0.000000000000E+00
  0.000000000000E+00  0.000000000000E+00  0.000000000000E+00  0.000000000000E+00
  0.000000000000E+00  0.000000000000E+00  0.000000000000E+00  0.000000000000E+00
  0.000000000000E+00  0.000000000000E+00  0.000000000000E+00  0.000000000000E+00
  0.000000000000E+00  0.000000000000E+00  0.000000000000E+00  0.000000000000E+00
  0.000000000000E+00  0.000000000000E+00  0.000000000000E+00  0.000000000000E+00
  0.000000000000E+00  0.000000000000E+00  0.000000000000E+00  0.000000000000E+00
  0.000000000000E+00  0.000000000000E+00  0.000000000000E+00  0.000000000000E+00
  0.000000000000E+00  0.000000000000E+00  0.000000000000E+00  0.000000000000E+00
  0.000000000000E+00  0.000000000000E+00  0.000000000000E+00  0.000000000000E+00
  0.000000000000E+00  0.000000000000E+00  0.000000000000E+00  0.000000000000E+00
  0.000000000000E+00  0.000000000000E+00  0.000000000000E+00  0.000000000000E+00
  0.000000000000E+00  0.000000000000E+00  0.000000000000E+00  0.000000000000E+00
  0.000000000000E+00  0.000000000000E+00  0.000000000000E+00  0.000000000000E+00
  0.000000000000E+00  0.000000000000E+00  0.000000000000E+00  0.000000000000E+00
  0.000000000000E+00  0.000000000000E+00  0.000000000000E+00  0.000000000000E+00
  0.000000000000E+00  0.000000000000E+00  0.000000000000E+00  0.000000000000E+00
  0.000000000000E+00  0.000000000000E+00  0.000000000000E+00  0.000000000000E+00
  0.000000000000E+00  0.000000000000E+00  0.000000000000E+00  0.000000000000E+00
  0.000000000000E+00  0.000000000000E+00  0.000000000000E+00  0.000000000000E+00
  0.000000000000E+00  0.000000000000E+00  0.000000000000E+00  0.000000000000E+00
  0.000000000000E+00  0.000000000000E+00  0.000000000000E+00  0.000000000000E+00
  0.000000000000E+00  0.000000000000E+00
</data>
</radfunc>
</pseudocore-charge>
<semilocal-potentials set="scalar_relativistic">
<slps n="3" l="s" rc="1.35662928595" eref="-2.01665985428">
<radfunc>
<data npts="290">
  7.292487176068E+00  7.286987785088E+00  7.270562029970E+00  7.243196164125E+00
  7.205226187760E+00  7.155437093298E+00  7.092206651382E+00  7.020110377212E+00
  6.939436012697E+00  6.845874656589E+00  6.741077521968E+00  6.627958955090E+00
  6.492333238980E+00  6.351938118171E+00  6.187943859258E+00  6.025893397422E+00
  5.841397397945E+00  5.668565428224E+00  5.476610716786E+00  5.263780985558E+00
  5.028252851110E+00  4.822229325030E+00  4.599508577177E+00  4.359120866662E+00
  4.100111651662E+00  3.821557377648E+00  3.522583638747E+00  3.284465710520E+00
  3.034100770567E+00  2.771217336031E+00  2.495585084629E+00  2.207021239977E+00
  1.905397125020E+00  1.590644787452E+00  1.262763584763E+00  9.218266012616E-01
  5.679867562919E-01  2.014824527560E-01 -4.973099028717E-02 -3.063081382821E-01
 -5.681090808929E-01 -8.349743336562E-01 -1.106724561601E+00 -1.383160406322E+00
 -1.664062421748E+00 -1.949191122311E+00 -2.238287145497E+00 -2.531071528782E+00
 -2.827246098705E+00 -3.126493967476E+00 -3.428480129862E+00 -3.732852150436E+00
 -4.039240928418E+00 -4.347261524539E+00 -4.656514031581E+00 -4.966584467554E+00
 -5.277045668085E+00 -5.587458152475E+00 -5.897370936232E+00 -6.206322261903E+00
 -6.513840219733E+00 -6.819443230464E+00 -7.122640364598E+00 -7.422931475970E+00
 -7.719807133023E+00 -8.012748339146E+00 -8.301226044453E+00 -8.443622843432E+00
 -8.584700466208E+00 -8.724389625855E+00 -8.862620254604E+00 -8.999321473951E+00
 -9.134421565586E+00 -9.267847944229E+00 -9.399527133649E+00 -9.529384747281E+00
 -9.657345475079E+00 -9.783333078389E+00 -9.907270394810E+00 -1.002907935514E+01
 -1.014868101463E+01 -1.026599560074E+01 -1.038094257975E+01 -1.049344074425E+01
 -1.060340832332E+01 -1.071076311709E+01 -1.081542265644E+01 -1.091730438809E+01
 -1.101632588451E+01 -1.111240507678E+01 -1.120546050752E+01 -1.129541159964E+01
 -1.138217893539E+01 -1.146568453900E+01 -1.154585215537E+01 -1.162260751649E+01
 -1.169587858749E+01 -1.176559578464E+01 -1.183169215903E+01 -1.189410354169E+01
 -1.195276864864E+01 -1.200762914754E+01 -1.205862969091E+01 -1.210571792449E+01
 -1.214884448168E+01 -1.218796297721E+01 -1.222303001392E+01 -1.225400521592E+01
 -1.228085129939E+01 -1.230353418949E+01 -1.232202318746E+01 -1.233629118775E+01
 -1.234631494041E+01 -1.235207534978E+01 -1.235355779725E+01 -1.235075247318E+01
 -1.234365470192E+01 -1.233226524310E+01 -1.231659055300E+01 -1.229664299056E+01
 -1.227244095406E+01 -1.224400893615E+01 -1.221137748674E+01 -1.217458307522E+01
 -1.213366784579E+01 -1.208867926248E+01 -1.203966964342E+01 -1.198669558822E+01
 -1.192981730684E+01 -1.186909786399E+01 -1.180460235952E+01 -1.173639707228E+01
 -1.166454860198E+01 -1.158912305143E+01 -1.151018529794E+01 -1.142779840958E+01
 -1.134202326651E+01 -1.125291845145E+01 -1.116054047499E+01 -1.106494440049E+01
 -1.096618493001E+01 -1.086431800649E+01 -1.075940297738E+01 -1.065150535160E+01
 -1.054070016435E+01 -1.042707594242E+01 -1.031073923655E+01 -1.019181965676E+01
 -1.007047531140E+01 -9.946898511825E+00 -9.821321562360E+00 -9.694022411664E+00
 -9.565329897382E+00 -9.435628274933E+00 -9.305360685462E+00 -9.175031191738E+00